<VTKFile type="ImageData">
<ImageData WholeExtent="0 959 0 212 0 0" Origin="0 0 0"
 Spacing="0.01 0.01 0">
<Piece Extent="0 959 0 212 0 0">
<PointData>
<DataArray Name="T" NumberOfComponents="1" format="ascii" type="Float64">
3670 3670 3670 3670 3670 3670 3670 3670 3670 3670 3670 3670 3670 3670 3670 3670 3670 3670 3670 3670 3670 3670 3670 3670 3670 3670 3670 3670 3670 3670 3670 3670 3670 3670 3670 3670 3670 3670 3670 3670 3670 3670 3670 3670 3670 3670 3670 3670 3670 3670 3670 3670 3670 3670 3670 3670 3670 3670 3670 3670 3670 3670 3670 3670 3670 3670 3670 3670 3670 3670 3670 3670 3670 3670 3670 3670 3670 3670 3670 3670 3670 3670 3670 3670 3670 3670 3670 3670 3670 3670 3670 3670 3670 3670 3670 3670 3670 3670 3670 3670 3670 3670 3670 3670 3670 3670 3670 3670 3670 3670 3670 3670 3670 3670 3670 3670 3670 3670 3670 3670 3670 3670 3670 3670 3670 3670 3670 3670 3670 3670 3670 3670 3670 3670 3670 3670 3670 3670 3670 3670 3670 3670 3670 3670 3670 3670 3670 3670 3670 3670 3670 3670 3670 3670 3670 3670 3670 3670 3670 3670 3670 3670 3670 3670 3670 3670 3670 3670 3670 3670 3670 3670 3670 3670 3670 3670 3670 3670 3670 3670 3670 3670 3670 3670 3670 3670 3670 3670 3670 3670 3670 3670 3670 3670 3670 3670 3670 3670 3670 3670 3670 3670 3670 3670 3670 3670 3670 3670 3670 3670 3670 3670 3670 3670 3670 3670 3670 3670 3670 3670 3670 3670 3670 3670 3670 3670 3670 3670 3670 3670 3670 3670 3670 3670 3670 3670 3670 3670 3670 3670 3670 3670 3670 3670 3670 3670 3670 3670 3670 3670 3670 3670 3670 3670 3670 3670 3670 3670 3670 3670 3670 3670 3670 3670 3670 3670 3670 3670 3670 3670 3670 3670 3670 3670 3670 3670 3670 3670 3670 3670 3670 3670 3670 3670 3670 3670 3670 3670 3670 3670 3670 3670 3670 3670 3670 3670 3670 3670 3670 3670 3670 3670 3670 3670 3670 3670 3670 3670 3670 3670 3670 3670 3670 3670 3670 3670 3670 3670 3670 3670 3670 3670 3670 3670 3670 3670 3670 3670 3670 3670 3670 3670 3670 3670 3670 3670 3670 3670 3670 3670 3670 3670 3670 3670 3670 3670 3670 3670 3670 3670 3670 3670 3670 3670 3670 3670 3670 3670 3670 3670 3670 3670 3670 3670 3670 3670 3670 3670 3670 3670 3670 3670 3670 3670 3670 3670 3670 3670 3670 3670 3670 3670 3670 3670 3670 3670 3670 3670 3670 3670 3670 3670 3670 3670 3670 3670 3670 3670 3670 3670 3670 3670 3670 3670 3670 3670 3670 3670 3670 3670 3670 3670 3670 3670 3670 3670 3670 3670 3670 3670 3670 3670 3670 3670 3670 3670 3670 3670 3670 3670 3670 3670 3670 3670 3670 3670 3670 3670 3670 3670 3670 3670 3670 3670 3670 3670 3670 3670 3670 3670 3670 3670 3670 3670 3670 3670 3670 3670 3670 3670 3670 3670 3670 3670 3670 3670 3670 3670 3670 3670 3670 3670 3670 3670 3670 3670 3670 3670 3670 3670 3670 3670 3670 3670 3670 3670 3670 3670 3670 3670 3670 3670 3670 3670 3670 3670 3670 3670 3670 3670 3670 3670 3670 3670 3670 3670 3670 3670 3670 3670 3670 3670 3670 3670 3670 3670 3670 3670 3670 3670 3670 3670 3670 3670 3670 3670 3670 3670 3670 3670 3670 3670 3670 3670 3670 3670 3670 3670 3670 3670 3670 3670 3670 3670 3670 3670 3670 3670 3670 3670 3670 3670 3670 3670 3670 3670 3670 3670 3670 3670 3670 3670 3670 3670 3670 3670 3670 3670 3670 3670 3670 3670 3670 3670 3670 3670 3670 3670 3670 3670 3670 3670 3670 3670 3670 3670 3670 3670 3670 3670 3670 3670 3670 3670 3670 3670 3670 3670 3670 3670 3670 3670 3670 3670 3670 3670 3670 3670 3670 3670 3670 3670 3670 3670 3670 3670 3670 3670 3670 3670 3670 3670 3670 3670 3670 3670 3670 3670 3670 3670 3670 3670 3670 3670 3670 3670 3670 3670 3670 3670 3670 3670 3670 3670 3670 3670 3670 3670 3670 3670 3670 3670 3670 3670 3670 3670 3670 3670 3670 3670 3670 3670 3670 3670 3670 3670 3670 3670 3670 3670 3670 3670 3670 3670 3670 3670 3670 3670 3670 3670 3670 3670 3670 3670 3670 3670 3670 3670 3670 3670 3670 3670 3670 3670 3670 3670 3670 3670 3670 3670 3670 3670 3670 3670 3670 3670 3670 3670 3670 3670 3670 3670 3670 3670 3670 3670 3670 3670 3670 3670 3670 3670 3670 3670 3670 3670 3670 3670 3670 3670 3670 3670 3670 3670 3670 3670 3670 3670 3670 3670 3670 3670 3670 3670 3670 3670 3670 3670 3670 3670 3670 3670 3670 3670 3670 3670 3670 3670 3670 3670 3670 3670 3667.05 3670 3670 3670 3670 3670 3670 3670 3670 3670 3670 3670 3670 3670 3670 3670 3670 3670 3670 3670 3670 3670 3670 3670 3670 3670 3670 3670 3670 3670 3670 3670 3670 3670 3670 3670 3670 3670 3670 3670 3670 3670 3670 3670 3670 3670 3670 3670 3670 3670 3670 3670 3670 3670 3670 3670 3670 3670 3670 3670 3670 3670 3670 3670 3670 3670 3670 3670 3670 3670 3670 3670 3670 3670 3670 3670 3670 3670 3670 3670 3670 3670 3670 3670 3670 3670 3670 3670 3670 3670 3670 3670 3670 3670 3670 3670 3670 3670 3670 3670 3670 3670 3670 3670 3670 3670 3670 3670 3670 3670 3670 3670 3670 3670 3670 3670 3670 3670 3670 3670 3670 3670 3670 3670 3670 3670 3670 3670 3670 3670 3670 3670 3670 3670 3670 3670 3670 3670 3670 3670 3670 3670 3670 3670 3670 3670 3670 3670 3670 3670 3670 3670 3670 3670 3670 3670 3670 3670 3670 3670 3670 3670 3670 3670 3670 3670 3670 3670 3670 3670 3670 3670 3670 3670 3670 3670 3670 3670 3670 3670 3670 3670 3670 3670 3670 3670 3670 3670 3670 3670 3670 3670 3670 3670 3670 3670 3670 3670 3670 3670 3670 3670 3670 3670 3670 3670 3670 3670 3670 3670 3670 3670 3670 3670 3670 3670 3670 3670 3670 3670 3670 3670 3670 3670 3670 3670 3670 3670 3670 3670 3670 3670 3670 3670 3670 3670 3670 3670 3670 3670 3670 3670 3670 3670 3670 3670 3670 3670 3670 3670 3670 3670 3670 3670 3670 3670 3670 3670 3670 3670 3670 3670 3670 3670 3670 3670 3670 3670 3670 3670 3670 3670 3670 3670 3670 3670 3670 3670 3670 3670 3670 3670 3670 3670 3670 3670 3670 3670 3670 3670 3670 3670 3670 3670 3670 3670 3670 3670 3670 3670 3670 3670 3670 3670 3670 3670 3670 3670 3670 3670 3670 3670 3670 3670 3670 3670 3670 3670 3670 3670 3670 3670 3670 3670 3670 3670 3670 3670 3670 3670 3670 3670 3670 3670 3670 3670 3670 3670 3670 3670 3670 3670 3670 3670 3670 3670 3670 3670 3670 3670 3670 3670 3670 3670 3670 3670 3670 3670 3670 3670 3670 3670 3670 3670 3670 3670 3670 3670 3670 3670 3670 3670 3670 3670 3670 3670 3670 3670 3670 3670 3670 3670 3670 3670 3670 3670 3670 3670 3670 3670 3670 3670 3670 3670 3670 3670 3670 3670 3670 3670 3670 3670 3670 3670 3670 3670 3670 3670 3670 3670 3670 3670 3670 3670 3670 3670 3670 3670 3670 3670 3670 3670 3670 3670 3670 3670 3670 3670 3670 3670 3670 3670 3670 3670 3670 3670 3670 3670 3670 3670 3670 3670 3670 3670 3670 3670 3670 3670 3670 3670 3670 3670 3670 3670 3670 3670 3670 3670 3670 3670 3670 3670 3670 3670 3670 3670 3670 3670 3670 3670 3670 3670 3670 3670 3670 3670 3670 3670 3670 3670 3670 3670 3670 3670 3670 3670 3670 3670 3670 3670 3670 3670 3670 3670 3670 3670 3670 3670 3670 3670 3670 3670 3670 3670 3670 3670 3670 3670 3670 3670 3670 3670 3670 3670 3670 3670 3670 3670 3670 3670 3670 3670 3670 3670 3670 3670 3670 3670 3670 3670 3670 3670 3670 3670 3670 3670 3670 3670 3670 3670 3670 3670 3670 3670 3670 3670 3670 3670 3670 3670 3670 3670 3670 3670 3670 3670 3670 3670 3670 3670 3670 3670 3670 3670 3670 3670 3670 3670 3670 3670 3670 3670 3670 3670 3670 3670 3670 3670 3670 3670 3670 3670 3670 3670 3670 3670 3670 3670 3670 3670 3670 3670 3670 3670 3670 3670 3670 3670 3670 3670 3670 3670 3670 3670 3670 3670 3670 3670 3670 3670 3670 3670 3670 3670 3670 3670 3670 3670 3670 3670 3670 3670 3670 3670 3670 3670 3670 3670 3670 3670 3670 3670 3670 3670 3670 3670 3670 3670 3670 3670 3670 3670 3670 3670 3670 3670 3670 3670 3670 3670 3670 3670 3670 3670 3670 3670 3670 3670 3670 3670 3670 3670 3670 3670 3670 3670 3670 3670 3670 3670 3670 3670 3670 3670 3670 3670 3670 3670 3670 3670 3670 3670 3670 3670 3670 3670 3670 3670 3670 3670 3670 3670 3670 3670 3670 3670 3670 3670 3670 3670 3670 3670 3670 3670 3670 3670 3670 3670 3670 3670 3670 3670 3670 3670 3670 3670 3670 3670 3670 3670 3670 3670 3670 3670 3670 3670 3670 3670 3670 3670 3670 3670 3670 3670 3670 3670 3670 3670 3670 3670 3670 3670 3670 3670 3670 3670 3670 3670 3670 3670 3670 3670 3670 3670 3670 3670 3670 3670 3670 3670 3670 3670 3670 3670 3670 3670 3670 3670 3670 3670 3670 3670 3670 3670 3670 3670 3670 3670 3670 3670 3670 3670 3670 3670 3670 3670 3670 3670 3670 3670 3670 3670 3670 3670 3670 3670 3670 3670 3670 3670 3670 3670 3670 3670 3670 3670 3670 3670 3670 3670 3670 3670 3670 3670 3670 3670 3670 3670 3670 3670 3670 3670 3670 3670 3670 3670 3670 3670 3670 3670 3670 3670 3670 3670 3670 3670 3670 3670 3670 3670 3670 3670 3670 3670 3670 3670 3670 3670 3670 3670 3670 3670 3670 3670 3670 3670 3670 3670 3670 3670 3670 3670 3670 3670 3670 3670 3670 3670 3670 3670 3670 3670 3670 3670 3670 3670 3670 3670 3670 3670 3670 3670 3670 3670 3670 3670 3670 3670 3670 3670 3670 3670 3670 3670 3670 3670 3670 3670 3670 3670 3670 3670 3670 3670 3670 3670 3670 3670 3670 3670 3670 3670 3670 3670 3670 3670 3670 3670 3670 3670 3670 3670 3670 3670 3670 3670 3670 3670 3670 3670 3670 3670 3670 3670 3670 3670 3670 3670 3670 3670 3670 3670 3670 3670 3670 3670 3670 3661.28 3657.34 3655.76 3656.06 3658.97 3659.93 3660.3 3660.46 3660.56 3660.62 3660.67 3660.68 3660.57 3660.04 3660.88 3661.28 3661.53 3661.57 3660.85 3663.34 3670 3670 3670 3670 3670 3670 3670 3670 3670 3670 3670 3670 3670 3670 3670 3670 3670 3670 3670 3670 3670 3670 3670 3670 3670 3670 3670 3670 3670 3670 3670 3670 3670 3670 3670 3670 3670 3670 3670 3670 3670 3670 3670 3670 3670 3670 3670 3670 3670 3670 3670 3670 3670 3670 3670 3670 3670 3670 3670 3670 3670 3670 3670 3670 3670 3670 3670 3670 3670 3670 3670 3670 3670 3670 3670 3670 3670 3670 3670 3670 3670 3670 3670 3670 3670 3670 3670 3670 3670 3670 3670 3670 3670 3670 3670 3670 3670 3670 3670 3670 3670 3670 3670 3670 3670 3670 3670 3670 3670 3670 3670 3670 3670 3670 3670 3670 3670 3670 3670 3670 3670 3670 3670 3670 3670 3670 3670 3670 3670 3670 3670 3670 3670 3670 3670 3670 3670 3670 3670 3670 3670 3670 3670 3670 3670 3670 3670 3670 3670 3670 3670 3670 3670 3670 3670 3670 3670 3670 3670 3670 3670 3670 3670 3670 3670 3670 3670 3670 3670 3670 3670 3670 3670 3670 3670 3670 3670 3670 3670 3670 3670 3670 3670 3670 3670 3670 3670 3670 3670 3670 3670 3670 3670 3670 3670 3670 3670 3670 3670 3670 3670 3670 3670 3670 3670 3670 3670 3670 3670 3670 3670 3670 3670 3670 3670 3670 3670 3670 3670 3670 3670 3670 3670 3670 3670 3670 3670 3670 3670 3670 3670 3670 3670 3670 3670 3670 3670 3670 3670 3670 3670 3670 3670 3670 3670 3670 3670 3670 3670 3670 3670 3670 3670 3670 3670 3670 3670 3670 3670 3670 3670 3670 3670 3670 3670 3670 3670 3670 3670 3670 3670 3670 3670 3670 3670 3670 3670 3670 3670 3670 3670 3670 3670 3670 3670 3670 3670 3670 3670 3670 3670 3670 3670 3670 3670 3670 3670 3670 3670 3670 3670 3670 3670 3670 3670 3670 3670 3670 3670 3670 3670 3670 3670 3670 3670 3670 3670 3670 3670 3670 3670 3670 3670 3670 3670 3670 3670 3670 3670 3670 3670 3670 3670 3670 3670 3670 3670 3670 3670 3670 3670 3670 3670 3670 3670 3670 3670 3670 3670 3670 3670 3670 3670 3670 3670 3670 3670 3670 3670 3670 3670 3670 3670 3670 3670 3670 3670 3670 3670 3670 3670 3670 3670 3670 3670 3670 3670 3670 3670 3670 3670 3670 3670 3670 3670 3670 3670 3670 3670 3670 3670 3670 3670 3670 3670 3670 3670 3670 3670 3670 3670 3670 3670 3670 3670 3670 3670 3670 3670 3670 3670 3670 3670 3670 3670 3670 3670 3670 3670 3670 3670 3670 3670 3670 3670 3670 3670 3670 3670 3670 3670 3670 3670 3670 3670 3670 3670 3670 3670 3670 3670 3670 3670 3670 3670 3670 3670 3670 3670 3670 3670 3670 3670 3670 3670 3670 3670 3670 3670 3670 3670 3670 3670 3670 3670 3670 3670 3670 3670 3670 3670 3670 3670 3670 3670 3670 3670 3670 3670 3670 3670 3670 3670 3670 3670 3670 3670 3670 3670 3670 3670 3670 3670 3670 3670 3670 3670 3670 3670 3670 3670 3670 3670 3670 3670 3670 3670 3670 3670 3670 3670 3670 3670 3670 3670 3670 3670 3670 3670 3670 3670 3670 3670 3670 3670 3670 3670 3670 3670 3670 3670 3670 3670 3670 3670 3670 3670 3670 3670 3670 3670 3670 3670 3670 3670 3670 3670 3670 3670 3670 3670 3670 3670 3670 3670 3670 3670 3670 3670 3670 3670 3670 3670 3670 3670 3670 3670 3670 3670 3670 3670 3670 3670 3670 3670 3670 3670 3670 3670 3670 3670 3670 3670 3670 3670 3670 3670 3670 3670 3670 3670 3670 3670 3670 3670 3670 3670 3670 3670 3670 3670 3670 3670 3670 3670 3670 3670 3670 3670 3670 3670 3670 3670 3670 3670 3670 3670 3670 3670 3670 3670 3670 3670 3670 3670 3670 3670 3670 3670 3670 3670 3670 3670 3670 3670 3670 3670 3670 3670 3670 3670 3670 3670 3670 3670 3670 3670 3670 3670 3670 3670 3670 3670 3670 3670 3670 3670 3670 3670 3670 3670 3670 3670 3670 3670 3670 3670 3670 3670 3670 3670 3670 3670 3670 3670 3670 3670 3670 3670 3670 3670 3670 3670 3670 3670 3670 3670 3670 3670 3670 3670 3670 3670 3670 3670 3670 3670 3670 3670 3670 3670 3670 3670 3670 3670 3670 3670 3670 3670 3670 3670 3670 3670 3670 3670 3670 3670 3670 3670 3670 3670 3670 3670 3670 3670 3670 3670 3670 3670 3670 3670 3670 3670 3670 3670 3670 3670 3670 3670 3670 3670 3670 3670 3670 3670 3670 3670 3670 3670 3670 3670 3670 3670 3670 3670 3670 3670 3670 3670 3670 3670 3670 3670 3670 3670 3670 3670 3670 3670 3670 3670 3670 3670 3670 3670 3670 3670 3670 3670 3670 3670 3670 3670 3670 3670 3670 3670 3670 3670 3670 3670 3670 3670 3670 3670 3670 3670 3670 3670 3670 3670 3670 3670 3670 3670 3670 3670 3670 3670 3670 3670 3670 3670 3670 3670 3670 3670 3670 3670 3670 3670 3670 3670 3670 3670 3670 3670 3670 3670 3670 3670 3670 3670 3670 3670 3670 3670 3670 3670 3670 3670 3670 3670 3670 3670 3670 3670 3670 3670 3670 3670 3670 3670 3670 3670 3670 3670 3670 3670 3670 3670 3670 3670 3670 3670 3670 3670 3670 3670 3670 3670 3670 3670 3670 3670 3670 3670 3670 3670 3670 3670 3670 3670 3670 3670 3670 3670 3670 3670 3670 3670 3670 3670 3670 3670 3670 3670 3670 3670 3670 3670 3670 3670 3670 3670 3670 3670 3670 3670 3670 3670 3670 3670 3670 3670 3670 3670 3670 3670 3670 3670 3670 3670 3670 3670 3670 3670 3670 3670 3670 3670 3670 3670 3670 3661.29 3657.43 3656.35 3658.33 3658.34 3657.08 3653.37 3650.64 3649.22 3649.03 3649.88 3650.47 3650.81 3651 3651.14 3651.26 3651.37 3651.48 3651.57 3651.68 3652.19 3652.72 3653.27 3653.89 3654.74 3656.9 3660.19 3662.03 3663.69 3670 3670 3670 3670 3670 3670 3670 3670 3670 3670 3670 3670 3670 3670 3670 3670 3670 3670 3670 3670 3670 3670 3670 3670 3670 3670 3670 3670 3670 3670 3670 3670 3670 3670 3670 3670 3670 3670 3670 3670 3670 3670 3670 3670 3670 3670 3670 3670 3670 3670 3670 3670 3670 3670 3670 3670 3670 3670 3670 3670 3670 3670 3670 3670 3670 3670 3670 3670 3670 3670 3670 3670 3670 3670 3670 3670 3670 3670 3670 3670 3670 3670 3670 3670 3670 3670 3670 3670 3670 3670 3670 3670 3670 3670 3670 3670 3670 3670 3670 3670 3670 3670 3670 3670 3670 3670 3670 3670 3670 3670 3670 3670 3670 3670 3670 3670 3670 3670 3670 3670 3670 3670 3670 3670 3670 3670 3670 3670 3670 3670 3670 3670 3670 3670 3670 3670 3670 3670 3670 3670 3670 3670 3670 3670 3670 3670 3670 3670 3670 3670 3670 3670 3670 3670 3670 3670 3670 3670 3670 3670 3670 3670 3670 3670 3670 3670 3670 3670 3670 3670 3670 3670 3670 3670 3670 3670 3670 3670 3670 3670 3670 3670 3670 3670 3670 3670 3670 3670 3670 3670 3670 3670 3670 3670 3670 3670 3670 3670 3670 3670 3670 3670 3670 3670 3670 3670 3670 3670 3670 3670 3670 3670 3670 3670 3670 3670 3670 3670 3670 3670 3670 3670 3670 3670 3670 3670 3670 3670 3670 3670 3670 3670 3670 3670 3670 3670 3670 3670 3670 3670 3670 3670 3670 3670 3670 3670 3670 3670 3670 3670 3670 3670 3670 3670 3670 3670 3670 3670 3670 3670 3670 3670 3670 3670 3670 3670 3670 3670 3670 3670 3670 3670 3670 3670 3670 3670 3670 3670 3670 3670 3670 3670 3670 3670 3670 3670 3670 3670 3670 3670 3670 3670 3670 3670 3670 3670 3670 3670 3670 3670 3670 3670 3670 3670 3670 3670 3670 3670 3670 3670 3670 3670 3670 3670 3670 3670 3670 3670 3670 3670 3670 3670 3670 3670 3670 3670 3670 3670 3670 3670 3670 3670 3670 3670 3670 3670 3670 3670 3670 3670 3670 3670 3670 3670 3670 3670 3670 3670 3670 3670 3670 3670 3670 3670 3670 3670 3670 3670 3670 3670 3670 3670 3670 3670 3670 3670 3670 3670 3670 3670 3670 3670 3670 3670 3670 3670 3670 3670 3670 3670 3670 3670 3670 3670 3670 3670 3670 3670 3670 3670 3670 3670 3670 3670 3670 3670 3670 3670 3670 3670 3670 3670 3670 3670 3670 3670 3670 3670 3670 3670 3670 3670 3670 3670 3670 3670 3670 3670 3670 3670 3670 3670 3670 3670 3670 3670 3670 3670 3670 3670 3670 3670 3670 3670 3670 3670 3670 3670 3670 3670 3670 3670 3670 3670 3670 3670 3670 3670 3670 3670 3670 3670 3670 3670 3670 3670 3670 3670 3670 3670 3670 3670 3670 3670 3670 3670 3670 3670 3670 3670 3670 3670 3670 3670 3670 3670 3670 3670 3670 3670 3670 3670 3670 3670 3670 3670 3670 3670 3670 3670 3670 3670 3670 3670 3670 3670 3670 3670 3670 3670 3670 3670 3670 3670 3670 3670 3670 3670 3670 3670 3670 3670 3670 3670 3670 3670 3670 3670 3670 3670 3670 3670 3670 3670 3670 3670 3670 3670 3670 3670 3670 3670 3670 3670 3670 3670 3670 3670 3670 3670 3670 3670 3670 3670 3670 3670 3670 3670 3670 3670 3670 3670 3670 3670 3670 3670 3670 3670 3670 3670 3670 3670 3670 3670 3670 3670 3670 3670 3670 3670 3670 3670 3670 3670 3670 3670 3670 3670 3670 3670 3670 3670 3670 3670 3670 3670 3670 3670 3670 3670 3670 3670 3670 3670 3670 3670 3670 3670 3670 3670 3670 3670 3670 3670 3670 3670 3670 3670 3670 3670 3670 3670 3670 3670 3670 3670 3670 3670 3670 3670 3670 3670 3670 3670 3670 3670 3670 3670 3670 3670 3670 3670 3670 3670 3670 3670 3670 3670 3670 3670 3670 3670 3670 3670 3670 3670 3670 3670 3670 3670 3670 3670 3670 3670 3670 3670 3670 3670 3670 3670 3670 3670 3670 3670 3670 3670 3670 3670 3670 3670 3670 3670 3670 3670 3670 3670 3670 3670 3670 3670 3670 3670 3670 3670 3670 3670 3670 3670 3670 3670 3670 3670 3670 3670 3670 3670 3670 3670 3670 3670 3670 3670 3670 3670 3670 3670 3670 3670 3670 3670 3670 3670 3670 3670 3670 3670 3670 3670 3670 3670 3670 3670 3670 3670 3670 3670 3670 3670 3670 3670 3670 3670 3670 3670 3670 3670 3670 3670 3670 3670 3670 3670 3670 3670 3670 3670 3670 3670 3670 3670 3670 3670 3670 3670 3670 3670 3670 3670 3670 3670 3670 3670 3670 3670 3670 3670 3670 3670 3670 3670 3670 3670 3670 3670 3670 3670 3670 3670 3670 3670 3670 3670 3670 3670 3670 3670 3670 3670 3670 3670 3670 3670 3670 3670 3670 3670 3670 3670 3670 3670 3670 3670 3670 3670 3670 3670 3670 3670 3670 3670 3670 3670 3670 3670 3670 3670 3670 3670 3670 3670 3670 3670 3670 3670 3670 3670 3670 3670 3670 3670 3670 3670 3670 3670 3670 3670 3670 3670 3670 3670 3670 3670 3670 3670 3670 3670 3670 3670 3670 3670 3670 3670 3670 3670 3670 3670 3670 3670 3670 3670 3670 3670 3670 3670 3670 3670 3670 3670 3670 3670 3670 3670 3670 3670 3670 3670 3670 3670 3670 3670 3670 3670 3670 3670 3670 3670 3670 3670 3670 3670 3670 3670 3670 3670 3670 3670 3670 3670 3670 3670 3670 3670 3670 3670 3670 3670 3670 3670 3670 3670 3670 3670 3670 3670 3670 3670 3670 3670 3670 3670 3670 3670 3670 3670 3670 3670 3670 3661.37 3657.99 3658.46 3657.15 3653.3 3650.44 3648.97 3648.65 3647.95 3646.61 3644.5 3642.64 3641.44 3640.97 3641.06 3641.26 3641.45 3641.6 3641.75 3641.91 3642.09 3642.3 3642.56 3642.92 3643.47 3644.15 3644.96 3645.97 3647.32 3649.33 3651.84 3654.23 3656.9 3660.59 3663.04 3670 3670 3670 3670 3670 3670 3670 3670 3670 3670 3670 3670 3670 3670 3670 3670 3670 3670 3670 3670 3670 3670 3670 3670 3670 3670 3670 3670 3670 3670 3670 3670 3670 3670 3670 3670 3670 3670 3670 3670 3670 3670 3670 3670 3670 3670 3670 3670 3670 3670 3670 3670 3670 3670 3670 3670 3670 3670 3670 3670 3670 3670 3670 3670 3670 3670 3670 3670 3670 3670 3670 3670 3670 3670 3670 3670 3670 3670 3670 3670 3670 3670 3670 3670 3670 3670 3670 3670 3670 3670 3670 3670 3670 3670 3670 3670 3670 3670 3670 3670 3670 3670 3670 3670 3670 3670 3670 3670 3670 3670 3670 3670 3670 3670 3670 3670 3670 3670 3670 3670 3670 3670 3670 3670 3670 3670 3670 3670 3670 3670 3670 3670 3670 3670 3670 3670 3670 3670 3670 3670 3670 3670 3670 3670 3670 3670 3670 3670 3670 3670 3670 3670 3670 3670 3670 3670 3670 3670 3670 3670 3670 3670 3670 3670 3670 3670 3670 3670 3670 3670 3670 3670 3670 3670 3670 3670 3670 3670 3670 3670 3670 3670 3670 3670 3670 3670 3670 3670 3670 3670 3670 3670 3670 3670 3670 3670 3670 3670 3670 3670 3670 3670 3670 3670 3670 3670 3670 3670 3670 3670 3670 3670 3670 3670 3670 3670 3670 3670 3670 3670 3670 3670 3670 3670 3670 3670 3670 3670 3670 3670 3670 3670 3670 3670 3670 3670 3670 3670 3670 3670 3670 3670 3670 3670 3670 3670 3670 3670 3670 3670 3670 3670 3670 3670 3670 3670 3670 3670 3670 3670 3670 3670 3670 3670 3670 3670 3670 3670 3670 3670 3670 3670 3670 3670 3670 3670 3670 3670 3670 3670 3670 3670 3670 3670 3670 3670 3670 3670 3670 3670 3670 3670 3670 3670 3670 3670 3670 3670 3670 3670 3670 3670 3670 3670 3670 3670 3670 3670 3670 3670 3670 3670 3670 3670 3670 3670 3670 3670 3670 3670 3670 3670 3670 3670 3670 3670 3670 3670 3670 3670 3670 3670 3670 3670 3670 3670 3670 3670 3670 3670 3670 3670 3670 3670 3670 3670 3670 3670 3670 3670 3670 3670 3670 3670 3670 3670 3670 3670 3670 3670 3670 3670 3670 3670 3670 3670 3670 3670 3670 3670 3670 3670 3670 3670 3670 3670 3670 3670 3670 3670 3670 3670 3670 3670 3670 3670 3670 3670 3670 3670 3670 3670 3670 3670 3670 3670 3670 3670 3670 3670 3670 3670 3670 3670 3670 3670 3670 3670 3670 3670 3670 3670 3670 3670 3670 3670 3670 3670 3670 3670 3670 3670 3670 3670 3670 3670 3670 3670 3670 3670 3670 3670 3670 3670 3670 3670 3670 3670 3670 3670 3670 3670 3670 3670 3670 3670 3670 3670 3670 3670 3670 3670 3670 3670 3670 3670 3670 3670 3670 3670 3670 3670 3670 3670 3670 3670 3670 3670 3670 3670 3670 3670 3670 3670 3670 3670 3670 3670 3670 3670 3670 3670 3670 3670 3670 3670 3670 3670 3670 3670 3670 3670 3670 3670 3670 3670 3670 3670 3670 3670 3670 3670 3670 3670 3670 3670 3670 3670 3670 3670 3670 3670 3670 3670 3670 3670 3670 3670 3670 3670 3670 3670 3670 3670 3670 3670 3670 3670 3670 3670 3670 3670 3670 3670 3670 3670 3670 3670 3670 3670 3670 3670 3670 3670 3670 3670 3670 3670 3670 3670 3670 3670 3670 3670 3670 3670 3670 3670 3670 3670 3670 3670 3670 3670 3670 3670 3670 3670 3670 3670 3670 3670 3670 3670 3670 3670 3670 3670 3670 3670 3670 3670 3670 3670 3670 3670 3670 3670 3670 3670 3670 3670 3670 3670 3670 3670 3670 3670 3670 3670 3670 3670 3670 3670 3670 3670 3670 3670 3670 3670 3670 3670 3670 3670 3670 3670 3670 3670 3670 3670 3670 3670 3670 3670 3670 3670 3670 3670 3670 3670 3670 3670 3670 3670 3670 3670 3670 3670 3670 3670 3670 3670 3670 3670 3670 3670 3670 3670 3670 3670 3670 3670 3670 3670 3670 3670 3670 3670 3670 3670 3670 3670 3670 3670 3670 3670 3670 3670 3670 3670 3670 3670 3670 3670 3670 3670 3670 3670 3670 3670 3670 3670 3670 3670 3670 3670 3670 3670 3670 3670 3670 3670 3670 3670 3670 3670 3670 3670 3670 3670 3670 3670 3670 3670 3670 3670 3670 3670 3670 3670 3670 3670 3670 3670 3670 3670 3670 3670 3670 3670 3670 3670 3670 3670 3670 3670 3670 3670 3670 3670 3670 3670 3670 3670 3670 3670 3670 3670 3670 3670 3670 3670 3670 3670 3670 3670 3670 3670 3670 3670 3670 3670 3670 3670 3670 3670 3670 3670 3670 3670 3670 3670 3670 3670 3670 3670 3670 3670 3670 3670 3670 3670 3670 3670 3670 3670 3670 3670 3670 3670 3670 3670 3670 3670 3670 3670 3670 3670 3670 3670 3670 3670 3670 3670 3670 3670 3670 3670 3670 3670 3670 3670 3670 3670 3670 3670 3670 3670 3670 3670 3670 3670 3670 3670 3670 3670 3670 3670 3670 3670 3670 3670 3670 3670 3670 3670 3670 3670 3670 3670 3670 3670 3670 3670 3670 3670 3670 3670 3670 3670 3670 3670 3670 3670 3670 3670 3670 3670 3670 3670 3670 3670 3670 3670 3670 3670 3670 3670 3670 3670 3670 3670 3670 3670 3670 3670 3670 3670 3670 3670 3670 3670 3670 3670 3670 3670 3670 3670 3670 3670 3670 3670 3670 3670 3670 3670 3670 3670 3670 3670 3670 3670 3670 3670 3670 3670 3670 3670 3670 3670 3670 3670 3670 3670 3670 3670 3670 3670 3670 3670 3670 3670 3670 3670 3670 3670 3670 3670 3670 3670 3670 3661.58 3658.13 3658.47 3657.05 3653.14 3650.3 3648.72 3646.85 3644.32 3642.07 3640.44 3639.33 3638.23 3636.9 3635.37 3633.97 3632.94 3632.35 3632.12 3632.08 3632.13 3632.22 3632.35 3632.53 3632.77 3633.07 3633.46 3633.96 3634.63 3635.45 3636.46 3637.7 3639.27 3641.25 3643.6 3646.18 3649.07 3652.45 3655.98 3660.48 3670 3670 3670 3670 3670 3670 3670 3670 3670 3670 3670 3670 3670 3670 3670 3670 3670 3670 3670 3670 3670 3670 3670 3670 3670 3670 3670 3670 3670 3670 3670 3670 3670 3670 3670 3670 3670 3670 3670 3670 3670 3670 3670 3670 3670 3670 3670 3670 3670 3670 3670 3670 3670 3670 3670 3670 3670 3670 3670 3670 3670 3670 3670 3670 3670 3670 3670 3670 3670 3670 3670 3670 3670 3670 3670 3670 3670 3670 3670 3670 3670 3670 3670 3670 3670 3670 3670 3670 3670 3670 3670 3670 3670 3670 3670 3670 3670 3670 3670 3670 3670 3670 3670 3670 3670 3670 3670 3670 3670 3670 3670 3670 3670 3670 3670 3670 3670 3670 3670 3670 3670 3670 3670 3670 3670 3670 3670 3670 3670 3670 3670 3670 3670 3670 3670 3670 3670 3670 3670 3670 3670 3670 3670 3670 3670 3670 3670 3670 3670 3670 3670 3670 3670 3670 3670 3670 3670 3670 3670 3670 3670 3670 3670 3670 3670 3670 3670 3670 3670 3670 3670 3670 3670 3670 3670 3670 3670 3670 3670 3670 3670 3670 3670 3670 3670 3670 3670 3670 3670 3670 3670 3670 3670 3670 3670 3670 3670 3670 3670 3670 3670 3670 3670 3670 3670 3670 3670 3670 3670 3670 3670 3670 3670 3670 3670 3670 3670 3670 3670 3670 3670 3670 3670 3670 3670 3670 3670 3670 3670 3670 3670 3670 3670 3670 3670 3670 3670 3670 3670 3670 3670 3670 3670 3670 3670 3670 3670 3670 3670 3670 3670 3670 3670 3670 3670 3670 3670 3670 3670 3670 3670 3670 3670 3670 3670 3670 3670 3670 3670 3670 3670 3670 3670 3670 3670 3670 3670 3670 3670 3670 3670 3670 3670 3670 3670 3670 3670 3670 3670 3670 3670 3670 3670 3670 3670 3670 3670 3670 3670 3670 3670 3670 3670 3670 3670 3670 3670 3670 3670 3670 3670 3670 3670 3670 3670 3670 3670 3670 3670 3670 3670 3670 3670 3670 3670 3670 3670 3670 3670 3670 3670 3670 3670 3670 3670 3670 3670 3670 3670 3670 3670 3670 3670 3670 3670 3670 3670 3670 3670 3670 3670 3670 3670 3670 3670 3670 3670 3670 3670 3670 3670 3670 3670 3670 3670 3670 3670 3670 3670 3670 3670 3670 3670 3670 3670 3670 3670 3670 3670 3670 3670 3670 3670 3670 3670 3670 3670 3670 3670 3670 3670 3670 3670 3670 3670 3670 3670 3670 3670 3670 3670 3670 3670 3670 3670 3670 3670 3670 3670 3670 3670 3670 3670 3670 3670 3670 3670 3670 3670 3670 3670 3670 3670 3670 3670 3670 3670 3670 3670 3670 3670 3670 3670 3670 3670 3670 3670 3670 3670 3670 3670 3670 3670 3670 3670 3670 3670 3670 3670 3670 3670 3670 3670 3670 3670 3670 3670 3670 3670 3670 3670 3670 3670 3670 3670 3670 3670 3670 3670 3670 3670 3670 3670 3670 3670 3670 3670 3670 3670 3670 3670 3670 3670 3670 3670 3670 3670 3670 3670 3670 3670 3670 3670 3670 3670 3670 3670 3670 3670 3670 3670 3670 3670 3670 3670 3670 3670 3670 3670 3670 3670 3670 3670 3670 3670 3670 3670 3670 3670 3670 3670 3670 3670 3670 3670 3670 3670 3670 3670 3670 3670 3670 3670 3670 3670 3670 3670 3670 3670 3670 3670 3670 3670 3670 3670 3670 3670 3670 3670 3670 3670 3670 3670 3670 3670 3670 3670 3670 3670 3670 3670 3670 3670 3670 3670 3670 3670 3670 3670 3670 3670 3670 3670 3670 3670 3670 3670 3670 3670 3670 3670 3670 3670 3670 3670 3670 3670 3670 3670 3670 3670 3670 3670 3670 3670 3670 3670 3670 3670 3670 3670 3670 3670 3670 3670 3670 3670 3670 3670 3670 3670 3670 3670 3670 3670 3670 3670 3670 3670 3670 3670 3670 3670 3670 3670 3670 3670 3670 3670 3670 3670 3670 3670 3670 3670 3670 3670 3670 3670 3670 3670 3670 3670 3670 3670 3670 3670 3670 3670 3670 3670 3670 3670 3670 3670 3670 3670 3670 3670 3670 3670 3670 3670 3670 3670 3670 3670 3670 3670 3670 3670 3670 3670 3670 3670 3670 3670 3670 3670 3670 3670 3670 3670 3670 3670 3670 3670 3670 3670 3670 3670 3670 3670 3670 3670 3670 3670 3670 3670 3670 3670 3670 3670 3670 3670 3670 3670 3670 3670 3670 3670 3670 3670 3670 3670 3670 3670 3670 3670 3670 3670 3670 3670 3670 3670 3670 3670 3670 3670 3670 3670 3670 3670 3670 3670 3670 3670 3670 3670 3670 3670 3670 3670 3670 3670 3670 3670 3670 3670 3670 3670 3670 3670 3670 3670 3670 3670 3670 3670 3670 3670 3670 3670 3670 3670 3670 3670 3670 3670 3670 3670 3670 3670 3670 3670 3670 3670 3670 3670 3670 3670 3670 3670 3670 3670 3670 3670 3670 3670 3670 3670 3670 3670 3670 3670 3670 3670 3670 3670 3670 3670 3670 3670 3670 3670 3670 3670 3670 3670 3670 3670 3670 3670 3670 3670 3670 3670 3670 3670 3670 3670 3670 3670 3670 3670 3670 3670 3670 3670 3670 3670 3670 3670 3670 3670 3670 3670 3670 3670 3670 3670 3670 3670 3670 3670 3670 3670 3670 3670 3670 3670 3670 3670 3670 3670 3670 3670 3670 3670 3670 3670 3670 3670 3670 3670 3670 3670 3670 3670 3670 3670 3670 3670 3670 3670 3670 3670 3670 3670 3670 3670 3670 3670 3670 3670 3670 3670 3670 3670 3670 3670 3670 3670 3670 3670 3670 3670 3670 3670 3670 3670 3670 3670 3670 3670 3670 3670 3670 3670 3670 3670 3670 3670 3670 3670 3670 3670 3662.21 3660.2 3657.91 3653.63 3650.52 3648.69 3646.6 3643.86 3641.34 3639.26 3637.21 3635.07 3633.08 3631.4 3630.01 3628.72 3627.42 3626.11 3624.94 3624.01 3623.37 3623 3622.82 3622.76 3622.8 3622.92 3623.11 3623.39 3623.76 3624.24 3624.85 3625.62 3626.57 3627.72 3629.11 3630.8 3632.81 3635.15 3637.79 3640.77 3644.15 3647.94 3652.44 3657.9 3661.14 3670 3670 3670 3670 3670 3670 3670 3670 3670 3670 3670 3670 3670 3670 3670 3670 3670 3670 3670 3670 3670 3670 3670 3670 3670 3670 3670 3670 3670 3670 3670 3670 3670 3670 3670 3670 3670 3670 3670 3670 3670 3670 3670 3670 3670 3670 3670 3670 3670 3670 3670 3670 3670 3670 3670 3670 3670 3670 3670 3670 3670 3670 3670 3670 3670 3670 3670 3670 3670 3670 3670 3670 3670 3670 3670 3670 3670 3670 3670 3670 3670 3670 3670 3670 3670 3670 3670 3670 3670 3670 3670 3670 3670 3670 3670 3670 3670 3670 3670 3670 3670 3670 3670 3670 3670 3670 3670 3670 3670 3670 3670 3670 3670 3670 3670 3670 3670 3670 3670 3670 3670 3670 3670 3670 3670 3670 3670 3670 3670 3670 3670 3670 3670 3670 3670 3670 3670 3670 3670 3670 3670 3670 3670 3670 3670 3670 3670 3670 3670 3670 3670 3670 3670 3670 3670 3670 3670 3670 3670 3670 3670 3670 3670 3670 3670 3670 3670 3670 3670 3670 3670 3670 3670 3670 3670 3670 3670 3670 3670 3670 3670 3670 3670 3670 3670 3670 3670 3670 3670 3670 3670 3670 3670 3670 3670 3670 3670 3670 3670 3670 3670 3670 3670 3670 3670 3670 3670 3670 3670 3670 3670 3670 3670 3670 3670 3670 3670 3670 3670 3670 3670 3670 3670 3670 3670 3670 3670 3670 3670 3670 3670 3670 3670 3670 3670 3670 3670 3670 3670 3670 3670 3670 3670 3670 3670 3670 3670 3670 3670 3670 3670 3670 3670 3670 3670 3670 3670 3670 3670 3670 3670 3670 3670 3670 3670 3670 3670 3670 3670 3670 3670 3670 3670 3670 3670 3670 3670 3670 3670 3670 36