<VTKFile type="ImageData">
<ImageData WholeExtent="0 959 0 212 0 0" Origin="0 0 0"
 Spacing="0.01 0.01 0">
<Piece Extent="0 959 0 212 0 0">
<PointData>
<DataArray Name="T" NumberOfComponents="1" format="ascii" type="Float64">
3670 3670 3670 3670 3670 3670 3670 3670 3670 3670 3670 3670 3670 3670 3670 3670 3670 3670 3670 3670 3670 3670 3670 3670 3670 3670 3670 3670 3670 3670 3670 3670 3670 3670 3670 3670 3670 3670 3670 3670 3670 3670 3670 3670 3670 3670 3670 3670 3670 3670 3670 3670 3670 3670 3670 3670 3670 3670 3670 3670 3670 3670 3670 3670 3670 3670 3670 3670 3670 3670 3670 3670 3670 3670 3670 3670 3670 3670 3670 3670 3670 3670 3670 3670 3670 3670 3670 3670 3670 3670 3670 3670 3670 3670 3670 3670 3670 3670 3670 3670 3670 3670 3670 3670 3670 3670 3670 3670 3670 3670 3670 3670 3670 3670 3670 3670 3670 3670 3670 3670 3670 3670 3670 3670 3670 3670 3670 3670 3670 3670 3670 3670 3670 3670 3670 3670 3670 3670 3670 3670 3670 3670 3670 3670 3670 3670 3670 3670 3670 3670 3670 3670 3670 3670 3670 3670 3670 3670 3670 3670 3670 3670 3670 3670 3670 3670 3670 3670 3670 3670 3670 3670 3670 3670 3670 3670 3670 3670 3670 3670 3670 3670 3670 3670 3670 3670 3670 3670 3670 3670 3670 3670 3670 3670 3670 3670 3670 3670 3670 3670 3670 3670 3670 3670 3670 3670 3670 3670 3670 3670 3670 3670 3670 3670 3670 3670 3670 3670 3670 3670 3670 3670 3670 3670 3670 3670 3670 3670 3670 3670 3670 3670 3670 3670 3670 3670 3670 3670 3670 3670 3670 3670 3670 3670 3670 3670 3670 3670 3670 3670 3670 3670 3670 3670 3670 3670 3670 3670 3670 3670 3670 3670 3670 3670 3670 3670 3670 3670 3670 3670 3670 3670 3670 3670 3670 3670 3670 3670 3670 3670 3670 3670 3670 3670 3670 3670 3670 3670 3670 3670 3670 3670 3670 3670 3670 3670 3670 3670 3670 3670 3670 3670 3670 3670 3670 3670 3670 3670 3670 3670 3670 3670 3670 3670 3670 3670 3670 3670 3670 3670 3670 3670 3670 3670 3670 3670 3670 3670 3670 3670 3670 3670 3670 3670 3670 3670 3670 3670 3670 3670 3670 3670 3670 3670 3670 3670 3670 3670 3670 3670 3670 3670 3670 3670 3670 3670 3670 3670 3670 3670 3670 3670 3670 3670 3670 3670 3670 3670 3670 3670 3670 3670 3670 3670 3670 3670 3670 3670 3670 3670 3670 3670 3670 3670 3670 3670 3670 3670 3670 3670 3670 3670 3670 3670 3670 3670 3670 3670 3670 3670 3670 3670 3670 3670 3670 3670 3670 3670 3670 3670 3670 3670 3670 3670 3670 3670 3670 3670 3670 3670 3670 3670 3670 3670 3670 3670 3670 3670 3670 3670 3670 3670 3670 3670 3670 3670 3670 3670 3670 3670 3670 3670 3670 3670 3670 3670 3670 3670 3670 3670 3670 3670 3670 3670 3670 3670 3670 3670 3670 3670 3670 3670 3670 3670 3670 3670 3670 3670 3670 3670 3670 3670 3670 3670 3670 3670 3670 3670 3670 3670 3670 3670 3670 3670 3670 3670 3670 3670 3670 3670 3670 3670 3670 3670 3670 3670 3670 3670 3670 3670 3670 3670 3670 3670 3670 3670 3670 3670 3670 3670 3670 3670 3670 3670 3670 3670 3670 3670 3670 3670 3670 3670 3670 3670 3670 3670 3670 3670 3670 3670 3670 3670 3670 3670 3670 3670 3670 3670 3670 3670 3670 3670 3670 3670 3670 3670 3670 3670 3670 3670 3670 3670 3670 3670 3670 3670 3670 3670 3670 3670 3670 3670 3670 3670 3670 3670 3670 3670 3670 3670 3670 3670 3670 3670 3670 3670 3670 3670 3670 3670 3670 3670 3670 3670 3670 3670 3670 3670 3670 3670 3670 3670 3670 3670 3670 3670 3670 3670 3670 3670 3670 3670 3670 3670 3670 3670 3670 3670 3670 3670 3670 3670 3670 3670 3670 3670 3670 3670 3670 3670 3670 3670 3670 3670 3670 3670 3670 3670 3670 3670 3670 3670 3670 3670 3670 3670 3670 3670 3670 3670 3670 3670 3670 3670 3670 3670 3670 3670 3670 3670 3670 3670 3670 3670 3670 3670 3670 3670 3670 3670 3670 3670 3670 3670 3670 3670 3670 3670 3670 3670 3670 3670 3670 3670 3670 3670 3670 3670 3670 3670 3670 3670 3670 3670 3670 3670 3670 3670 3670 3670 3670 3670 3670 3670 3670 3670 3670 3670 3670 3670 3670 3670 3670 3670 3670 3670 3670 3670 3670 3670 3670 3670 3670 3670 3670 3670 3670 3670 3670 3670 3670 3670 3670 3670 3670 3670 3670 3670 3670 3670 3670 3670 3670 3670 3670 3670 3670 3670 3670 3670 3670 3670 3670 3670 3670 3670 3670 3670 3670 3670 3670 3670 3670 3670 3670 3670 3670 3670 3670 3670 3670 3670 3666.03 3670 3670 3670 3670 3670 3670 3670 3670 3670 3670 3670 3670 3670 3670 3670 3670 3670 3670 3670 3670 3670 3670 3670 3670 3670 3670 3670 3670 3670 3670 3670 3670 3670 3670 3670 3670 3670 3670 3670 3670 3670 3670 3670 3670 3670 3670 3670 3670 3670 3670 3670 3670 3670 3670 3670 3670 3670 3670 3670 3670 3670 3670 3670 3670 3670 3670 3670 3670 3670 3670 3670 3670 3670 3670 3670 3670 3670 3670 3670 3670 3670 3670 3670 3670 3670 3670 3670 3670 3670 3670 3670 3670 3670 3670 3670 3670 3670 3670 3670 3670 3670 3670 3670 3670 3670 3670 3670 3670 3670 3670 3670 3670 3670 3670 3670 3670 3670 3670 3670 3670 3670 3670 3670 3670 3670 3670 3670 3670 3670 3670 3670 3670 3670 3670 3670 3670 3670 3670 3670 3670 3670 3670 3670 3670 3670 3670 3670 3670 3670 3670 3670 3670 3670 3670 3670 3670 3670 3670 3670 3670 3670 3670 3670 3670 3670 3670 3670 3670 3670 3670 3670 3670 3670 3670 3670 3670 3670 3670 3670 3670 3670 3670 3670 3670 3670 3670 3670 3670 3670 3670 3670 3670 3670 3670 3670 3670 3670 3670 3670 3670 3670 3670 3670 3670 3670 3670 3670 3670 3670 3670 3670 3670 3670 3670 3670 3670 3670 3670 3670 3670 3670 3670 3670 3670 3670 3670 3670 3670 3670 3670 3670 3670 3670 3670 3670 3670 3670 3670 3670 3670 3670 3670 3670 3670 3670 3670 3670 3670 3670 3670 3670 3670 3670 3670 3670 3670 3670 3670 3670 3670 3670 3670 3670 3670 3670 3670 3670 3670 3670 3670 3670 3670 3670 3670 3670 3670 3670 3670 3670 3670 3670 3670 3670 3670 3670 3670 3670 3670 3670 3670 3670 3670 3670 3670 3670 3670 3670 3670 3670 3670 3670 3670 3670 3670 3670 3670 3670 3670 3670 3670 3670 3670 3670 3670 3670 3670 3670 3670 3670 3670 3670 3670 3670 3670 3670 3670 3670 3670 3670 3670 3670 3670 3670 3670 3670 3670 3670 3670 3670 3670 3670 3670 3670 3670 3670 3670 3670 3670 3670 3670 3670 3670 3670 3670 3670 3670 3670 3670 3670 3670 3670 3670 3670 3670 3670 3670 3670 3670 3670 3670 3670 3670 3670 3670 3670 3670 3670 3670 3670 3670 3670 3670 3670 3670 3670 3670 3670 3670 3670 3670 3670 3670 3670 3670 3670 3670 3670 3670 3670 3670 3670 3670 3670 3670 3670 3670 3670 3670 3670 3670 3670 3670 3670 3670 3670 3670 3670 3670 3670 3670 3670 3670 3670 3670 3670 3670 3670 3670 3670 3670 3670 3670 3670 3670 3670 3670 3670 3670 3670 3670 3670 3670 3670 3670 3670 3670 3670 3670 3670 3670 3670 3670 3670 3670 3670 3670 3670 3670 3670 3670 3670 3670 3670 3670 3670 3670 3670 3670 3670 3670 3670 3670 3670 3670 3670 3670 3670 3670 3670 3670 3670 3670 3670 3670 3670 3670 3670 3670 3670 3670 3670 3670 3670 3670 3670 3670 3670 3670 3670 3670 3670 3670 3670 3670 3670 3670 3670 3670 3670 3670 3670 3670 3670 3670 3670 3670 3670 3670 3670 3670 3670 3670 3670 3670 3670 3670 3670 3670 3670 3670 3670 3670 3670 3670 3670 3670 3670 3670 3670 3670 3670 3670 3670 3670 3670 3670 3670 3670 3670 3670 3670 3670 3670 3670 3670 3670 3670 3670 3670 3670 3670 3670 3670 3670 3670 3670 3670 3670 3670 3670 3670 3670 3670 3670 3670 3670 3670 3670 3670 3670 3670 3670 3670 3670 3670 3670 3670 3670 3670 3670 3670 3670 3670 3670 3670 3670 3670 3670 3670 3670 3670 3670 3670 3670 3670 3670 3670 3670 3670 3670 3670 3670 3670 3670 3670 3670 3670 3670 3670 3670 3670 3670 3670 3670 3670 3670 3670 3670 3670 3670 3670 3670 3670 3670 3670 3670 3670 3670 3670 3670 3670 3670 3670 3670 3670 3670 3670 3670 3670 3670 3670 3670 3670 3670 3670 3670 3670 3670 3670 3670 3670 3670 3670 3670 3670 3670 3670 3670 3670 3670 3670 3670 3670 3670 3670 3670 3670 3670 3670 3670 3670 3670 3670 3670 3670 3670 3670 3670 3670 3670 3670 3670 3670 3670 3670 3670 3670 3670 3670 3670 3670 3670 3670 3670 3670 3670 3670 3670 3670 3670 3670 3670 3670 3670 3670 3670 3670 3670 3670 3670 3670 3670 3670 3670 3670 3670 3670 3670 3670 3670 3670 3670 3670 3670 3670 3670 3670 3670 3670 3670 3670 3670 3670 3670 3670 3670 3670 3670 3670 3670 3670 3670 3670 3670 3670 3670 3670 3670 3670 3670 3670 3670 3670 3670 3670 3670 3670 3670 3670 3670 3670 3670 3670 3670 3670 3670 3670 3670 3670 3670 3670 3670 3670 3670 3670 3670 3670 3670 3670 3670 3670 3670 3670 3670 3670 3670 3670 3670 3670 3670 3670 3670 3670 3670 3670 3670 3670 3670 3670 3670 3670 3670 3670 3670 3670 3670 3670 3670 3670 3670 3670 3670 3670 3670 3670 3670 3670 3670 3670 3670 3670 3670 3670 3670 3670 3670 3670 3670 3670 3670 3670 3670 3670 3670 3670 3670 3670 3670 3670 3670 3670 3670 3670 3670 3670 3670 3670 3670 3670 3670 3670 3670 3670 3670 3670 3670 3670 3670 3670 3670 3670 3670 3670 3670 3670 3670 3670 3670 3670 3670 3670 3670 3670 3670 3670 3670 3670 3670 3670 3670 3670 3670 3670 3670 3670 3670 3670 3670 3670 3670 3670 3670 3670 3670 3670 3670 3670 3670 3670 3670 3670 3670 3670 3670 3670 3670 3670 3670 3670 3670 3670 3670 3670 3670 3670 3670 3670 3670 3670 3670 3670 3670 3670 3670 3670 3670 3670 3670 3670 3670 3670 3670 3670 3670 3670 3670 3658.27 3652.97 3650.85 3651.25 3655.16 3656.46 3656.96 3657.18 3657.3 3657.39 3657.45 3657.47 3657.33 3656.62 3657.74 3658.28 3658.62 3658.67 3657.7 3661.05 3670 3670 3670 3670 3670 3670 3670 3670 3670 3670 3670 3670 3670 3670 3670 3670 3670 3670 3670 3670 3670 3670 3670 3670 3670 3670 3670 3670 3670 3670 3670 3670 3670 3670 3670 3670 3670 3670 3670 3670 3670 3670 3670 3670 3670 3670 3670 3670 3670 3670 3670 3670 3670 3670 3670 3670 3670 3670 3670 3670 3670 3670 3670 3670 3670 3670 3670 3670 3670 3670 3670 3670 3670 3670 3670 3670 3670 3670 3670 3670 3670 3670 3670 3670 3670 3670 3670 3670 3670 3670 3670 3670 3670 3670 3670 3670 3670 3670 3670 3670 3670 3670 3670 3670 3670 3670 3670 3670 3670 3670 3670 3670 3670 3670 3670 3670 3670 3670 3670 3670 3670 3670 3670 3670 3670 3670 3670 3670 3670 3670 3670 3670 3670 3670 3670 3670 3670 3670 3670 3670 3670 3670 3670 3670 3670 3670 3670 3670 3670 3670 3670 3670 3670 3670 3670 3670 3670 3670 3670 3670 3670 3670 3670 3670 3670 3670 3670 3670 3670 3670 3670 3670 3670 3670 3670 3670 3670 3670 3670 3670 3670 3670 3670 3670 3670 3670 3670 3670 3670 3670 3670 3670 3670 3670 3670 3670 3670 3670 3670 3670 3670 3670 3670 3670 3670 3670 3670 3670 3670 3670 3670 3670 3670 3670 3670 3670 3670 3670 3670 3670 3670 3670 3670 3670 3670 3670 3670 3670 3670 3670 3670 3670 3670 3670 3670 3670 3670 3670 3670 3670 3670 3670 3670 3670 3670 3670 3670 3670 3670 3670 3670 3670 3670 3670 3670 3670 3670 3670 3670 3670 3670 3670 3670 3670 3670 3670 3670 3670 3670 3670 3670 3670 3670 3670 3670 3670 3670 3670 3670 3670 3670 3670 3670 3670 3670 3670 3670 3670 3670 3670 3670 3670 3670 3670 3670 3670 3670 3670 3670 3670 3670 3670 3670 3670 3670 3670 3670 3670 3670 3670 3670 3670 3670 3670 3670 3670 3670 3670 3670 3670 3670 3670 3670 3670 3670 3670 3670 3670 3670 3670 3670 3670 3670 3670 3670 3670 3670 3670 3670 3670 3670 3670 3670 3670 3670 3670 3670 3670 3670 3670 3670 3670 3670 3670 3670 3670 3670 3670 3670 3670 3670 3670 3670 3670 3670 3670 3670 3670 3670 3670 3670 3670 3670 3670 3670 3670 3670 3670 3670 3670 3670 3670 3670 3670 3670 3670 3670 3670 3670 3670 3670 3670 3670 3670 3670 3670 3670 3670 3670 3670 3670 3670 3670 3670 3670 3670 3670 3670 3670 3670 3670 3670 3670 3670 3670 3670 3670 3670 3670 3670 3670 3670 3670 3670 3670 3670 3670 3670 3670 3670 3670 3670 3670 3670 3670 3670 3670 3670 3670 3670 3670 3670 3670 3670 3670 3670 3670 3670 3670 3670 3670 3670 3670 3670 3670 3670 3670 3670 3670 3670 3670 3670 3670 3670 3670 3670 3670 3670 3670 3670 3670 3670 3670 3670 3670 3670 3670 3670 3670 3670 3670 3670 3670 3670 3670 3670 3670 3670 3670 3670 3670 3670 3670 3670 3670 3670 3670 3670 3670 3670 3670 3670 3670 3670 3670 3670 3670 3670 3670 3670 3670 3670 3670 3670 3670 3670 3670 3670 3670 3670 3670 3670 3670 3670 3670 3670 3670 3670 3670 3670 3670 3670 3670 3670 3670 3670 3670 3670 3670 3670 3670 3670 3670 3670 3670 3670 3670 3670 3670 3670 3670 3670 3670 3670 3670 3670 3670 3670 3670 3670 3670 3670 3670 3670 3670 3670 3670 3670 3670 3670 3670 3670 3670 3670 3670 3670 3670 3670 3670 3670 3670 3670 3670 3670 3670 3670 3670 3670 3670 3670 3670 3670 3670 3670 3670 3670 3670 3670 3670 3670 3670 3670 3670 3670 3670 3670 3670 3670 3670 3670 3670 3670 3670 3670 3670 3670 3670 3670 3670 3670 3670 3670 3670 3670 3670 3670 3670 3670 3670 3670 3670 3670 3670 3670 3670 3670 3670 3670 3670 3670 3670 3670 3670 3670 3670 3670 3670 3670 3670 3670 3670 3670 3670 3670 3670 3670 3670 3670 3670 3670 3670 3670 3670 3670 3670 3670 3670 3670 3670 3670 3670 3670 3670 3670 3670 3670 3670 3670 3670 3670 3670 3670 3670 3670 3670 3670 3670 3670 3670 3670 3670 3670 3670 3670 3670 3670 3670 3670 3670 3670 3670 3670 3670 3670 3670 3670 3670 3670 3670 3670 3670 3670 3670 3670 3670 3670 3670 3670 3670 3670 3670 3670 3670 3670 3670 3670 3670 3670 3670 3670 3670 3670 3670 3670 3670 3670 3670 3670 3670 3670 3670 3670 3670 3670 3670 3670 3670 3670 3670 3670 3670 3670 3670 3670 3670 3670 3670 3670 3670 3670 3670 3670 3670 3670 3670 3670 3670 3670 3670 3670 3670 3670 3670 3670 3670 3670 3670 3670 3670 3670 3670 3670 3670 3670 3670 3670 3670 3670 3670 3670 3670 3670 3670 3670 3670 3670 3670 3670 3670 3670 3670 3670 3670 3670 3670 3670 3670 3670 3670 3670 3670 3670 3670 3670 3670 3670 3670 3670 3670 3670 3670 3670 3670 3670 3670 3670 3670 3670 3670 3670 3670 3670 3670 3670 3670 3670 3670 3670 3670 3670 3670 3670 3670 3670 3670 3670 3670 3670 3670 3670 3670 3670 3670 3670 3670 3670 3670 3670 3670 3670 3670 3670 3670 3670 3670 3670 3670 3670 3670 3670 3670 3670 3670 3670 3670 3670 3670 3670 3670 3670 3670 3670 3670 3670 3670 3670 3670 3670 3670 3670 3670 3670 3670 3670 3670 3670 3670 3670 3670 3670 3670 3670 3670 3670 3670 3670 3670 3670 3670 3670 3670 3670 3670 3670 3670 3670 3670 3670 3670 3670 3670 3670 3670 3670 3670 3670 3670 3670 3670 3670 3670 3670 3670 3670 3658.28 3653.09 3651.64 3654.31 3654.32 3652.62 3647.63 3643.96 3642.05 3641.8 3642.94 3643.73 3644.19 3644.45 3644.64 3644.8 3644.96 3645.1 3645.23 3645.37 3646.06 3646.78 3647.52 3648.35 3649.5 3652.4 3656.82 3659.29 3661.52 3670 3670 3670 3670 3670 3670 3670 3670 3670 3670 3670 3670 3670 3670 3670 3670 3670 3670 3670 3670 3670 3670 3670 3670 3670 3670 3670 3670 3670 3670 3670 3670 3670 3670 3670 3670 3670 3670 3670 3670 3670 3670 3670 3670 3670 3670 3670 3670 3670 3670 3670 3670 3670 3670 3670 3670 3670 3670 3670 3670 3670 3670 3670 3670 3670 3670 3670 3670 3670 3670 3670 3670 3670 3670 3670 3670 3670 3670 3670 3670 3670 3670 3670 3670 3670 3670 3670 3670 3670 3670 3670 3670 3670 3670 3670 3670 3670 3670 3670 3670 3670 3670 3670 3670 3670 3670 3670 3670 3670 3670 3670 3670 3670 3670 3670 3670 3670 3670 3670 3670 3670 3670 3670 3670 3670 3670 3670 3670 3670 3670 3670 3670 3670 3670 3670 3670 3670 3670 3670 3670 3670 3670 3670 3670 3670 3670 3670 3670 3670 3670 3670 3670 3670 3670 3670 3670 3670 3670 3670 3670 3670 3670 3670 3670 3670 3670 3670 3670 3670 3670 3670 3670 3670 3670 3670 3670 3670 3670 3670 3670 3670 3670 3670 3670 3670 3670 3670 3670 3670 3670 3670 3670 3670 3670 3670 3670 3670 3670 3670 3670 3670 3670 3670 3670 3670 3670 3670 3670 3670 3670 3670 3670 3670 3670 3670 3670 3670 3670 3670 3670 3670 3670 3670 3670 3670 3670 3670 3670 3670 3670 3670 3670 3670 3670 3670 3670 3670 3670 3670 3670 3670 3670 3670 3670 3670 3670 3670 3670 3670 3670 3670 3670 3670 3670 3670 3670 3670 3670 3670 3670 3670 3670 3670 3670 3670 3670 3670 3670 3670 3670 3670 3670 3670 3670 3670 3670 3670 3670 3670 3670 3670 3670 3670 3670 3670 3670 3670 3670 3670 3670 3670 3670 3670 3670 3670 3670 3670 3670 3670 3670 3670 3670 3670 3670 3670 3670 3670 3670 3670 3670 3670 3670 3670 3670 3670 3670 3670 3670 3670 3670 3670 3670 3670 3670 3670 3670 3670 3670 3670 3670 3670 3670 3670 3670 3670 3670 3670 3670 3670 3670 3670 3670 3670 3670 3670 3670 3670 3670 3670 3670 3670 3670 3670 3670 3670 3670 3670 3670 3670 3670 3670 3670 3670 3670 3670 3670 3670 3670 3670 3670 3670 3670 3670 3670 3670 3670 3670 3670 3670 3670 3670 3670 3670 3670 3670 3670 3670 3670 3670 3670 3670 3670 3670 3670 3670 3670 3670 3670 3670 3670 3670 3670 3670 3670 3670 3670 3670 3670 3670 3670 3670 3670 3670 3670 3670 3670 3670 3670 3670 3670 3670 3670 3670 3670 3670 3670 3670 3670 3670 3670 3670 3670 3670 3670 3670 3670 3670 3670 3670 3670 3670 3670 3670 3670 3670 3670 3670 3670 3670 3670 3670 3670 3670 3670 3670 3670 3670 3670 3670 3670 3670 3670 3670 3670 3670 3670 3670 3670 3670 3670 3670 3670 3670 3670 3670 3670 3670 3670 3670 3670 3670 3670 3670 3670 3670 3670 3670 3670 3670 3670 3670 3670 3670 3670 3670 3670 3670 3670 3670 3670 3670 3670 3670 3670 3670 3670 3670 3670 3670 3670 3670 3670 3670 3670 3670 3670 3670 3670 3670 3670 3670 3670 3670 3670 3670 3670 3670 3670 3670 3670 3670 3670 3670 3670 3670 3670 3670 3670 3670 3670 3670 3670 3670 3670 3670 3670 3670 3670 3670 3670 3670 3670 3670 3670 3670 3670 3670 3670 3670 3670 3670 3670 3670 3670 3670 3670 3670 3670 3670 3670 3670 3670 3670 3670 3670 3670 3670 3670 3670 3670 3670 3670 3670 3670 3670 3670 3670 3670 3670 3670 3670 3670 3670 3670 3670 3670 3670 3670 3670 3670 3670 3670 3670 3670 3670 3670 3670 3670 3670 3670 3670 3670 3670 3670 3670 3670 3670 3670 3670 3670 3670 3670 3670 3670 3670 3670 3670 3670 3670 3670 3670 3670 3670 3670 3670 3670 3670 3670 3670 3670 3670 3670 3670 3670 3670 3670 3670 3670 3670 3670 3670 3670 3670 3670 3670 3670 3670 3670 3670 3670 3670 3670 3670 3670 3670 3670 3670 3670 3670 3670 3670 3670 3670 3670 3670 3670 3670 3670 3670 3670 3670 3670 3670 3670 3670 3670 3670 3670 3670 3670 3670 3670 3670 3670 3670 3670 3670 3670 3670 3670 3670 3670 3670 3670 3670 3670 3670 3670 3670 3670 3670 3670 3670 3670 3670 3670 3670 3670 3670 3670 3670 3670 3670 3670 3670 3670 3670 3670 3670 3670 3670 3670 3670 3670 3670 3670 3670 3670 3670 3670 3670 3670 3670 3670 3670 3670 3670 3670 3670 3670 3670 3670 3670 3670 3670 3670 3670 3670 3670 3670 3670 3670 3670 3670 3670 3670 3670 3670 3670 3670 3670 3670 3670 3670 3670 3670 3670 3670 3670 3670 3670 3670 3670 3670 3670 3670 3670 3670 3670 3670 3670 3670 3670 3670 3670 3670 3670 3670 3670 3670 3670 3670 3670 3670 3670 3670 3670 3670 3670 3670 3670 3670 3670 3670 3670 3670 3670 3670 3670 3670 3670 3670 3670 3670 3670 3670 3670 3670 3670 3670 3670 3670 3670 3670 3670 3670 3670 3670 3670 3670 3670 3670 3670 3670 3670 3670 3670 3670 3670 3670 3670 3670 3670 3670 3670 3670 3670 3670 3670 3670 3670 3670 3670 3670 3670 3670 3670 3670 3670 3670 3670 3670 3670 3670 3670 3670 3670 3670 3670 3670 3670 3670 3670 3670 3670 3670 3670 3670 3670 3670 3670 3670 3670 3670 3670 3670 3670 3670 3670 3670 3670 3670 3670 3670 3670 3670 3670 3670 3670 3670 3670 3670 3670 3670 3670 3670 3670 3670 3670 3670 3670 3670 3670 3670 3670 3670 3670 3658.4 3653.85 3654.48 3652.72 3647.54 3643.69 3641.71 3641.28 3640.34 3638.53 3635.69 3633.19 3631.58 3630.95 3631.07 3631.35 3631.6 3631.82 3632.02 3632.23 3632.47 3632.76 3633.11 3633.6 3634.34 3635.26 3636.35 3637.71 3639.54 3642.23 3645.61 3648.83 3652.4 3657.37 3660.65 3670 3670 3670 3670 3670 3670 3670 3670 3670 3670 3670 3670 3670 3670 3670 3670 3670 3670 3670 3670 3670 3670 3670 3670 3670 3670 3670 3670 3670 3670 3670 3670 3670 3670 3670 3670 3670 3670 3670 3670 3670 3670 3670 3670 3670 3670 3670 3670 3670 3670 3670 3670 3670 3670 3670 3670 3670 3670 3670 3670 3670 3670 3670 3670 3670 3670 3670 3670 3670 3670 3670 3670 3670 3670 3670 3670 3670 3670 3670 3670 3670 3670 3670 3670 3670 3670 3670 3670 3670 3670 3670 3670 3670 3670 3670 3670 3670 3670 3670 3670 3670 3670 3670 3670 3670 3670 3670 3670 3670 3670 3670 3670 3670 3670 3670 3670 3670 3670 3670 3670 3670 3670 3670 3670 3670 3670 3670 3670 3670 3670 3670 3670 3670 3670 3670 3670 3670 3670 3670 3670 3670 3670 3670 3670 3670 3670 3670 3670 3670 3670 3670 3670 3670 3670 3670 3670 3670 3670 3670 3670 3670 3670 3670 3670 3670 3670 3670 3670 3670 3670 3670 3670 3670 3670 3670 3670 3670 3670 3670 3670 3670 3670 3670 3670 3670 3670 3670 3670 3670 3670 3670 3670 3670 3670 3670 3670 3670 3670 3670 3670 3670 3670 3670 3670 3670 3670 3670 3670 3670 3670 3670 3670 3670 3670 3670 3670 3670 3670 3670 3670 3670 3670 3670 3670 3670 3670 3670 3670 3670 3670 3670 3670 3670 3670 3670 3670 3670 3670 3670 3670 3670 3670 3670 3670 3670 3670 3670 3670 3670 3670 3670 3670 3670 3670 3670 3670 3670 3670 3670 3670 3670 3670 3670 3670 3670 3670 3670 3670 3670 3670 3670 3670 3670 3670 3670 3670 3670 3670 3670 3670 3670 3670 3670 3670 3670 3670 3670 3670 3670 3670 3670 3670 3670 3670 3670 3670 3670 3670 3670 3670 3670 3670 3670 3670 3670 3670 3670 3670 3670 3670 3670 3670 3670 3670 3670 3670 3670 3670 3670 3670 3670 3670 3670 3670 3670 3670 3670 3670 3670 3670 3670 3670 3670 3670 3670 3670 3670 3670 3670 3670 3670 3670 3670 3670 3670 3670 3670 3670 3670 3670 3670 3670 3670 3670 3670 3670 3670 3670 3670 3670 3670 3670 3670 3670 3670 3670 3670 3670 3670 3670 3670 3670 3670 3670 3670 3670 3670 3670 3670 3670 3670 3670 3670 3670 3670 3670 3670 3670 3670 3670 3670 3670 3670 3670 3670 3670 3670 3670 3670 3670 3670 3670 3670 3670 3670 3670 3670 3670 3670 3670 3670 3670 3670 3670 3670 3670 3670 3670 3670 3670 3670 3670 3670 3670 3670 3670 3670 3670 3670 3670 3670 3670 3670 3670 3670 3670 3670 3670 3670 3670 3670 3670 3670 3670 3670 3670 3670 3670 3670 3670 3670 3670 3670 3670 3670 3670 3670 3670 3670 3670 3670 3670 3670 3670 3670 3670 3670 3670 3670 3670 3670 3670 3670 3670 3670 3670 3670 3670 3670 3670 3670 3670 3670 3670 3670 3670 3670 3670 3670 3670 3670 3670 3670 3670 3670 3670 3670 3670 3670 3670 3670 3670 3670 3670 3670 3670 3670 3670 3670 3670 3670 3670 3670 3670 3670 3670 3670 3670 3670 3670 3670 3670 3670 3670 3670 3670 3670 3670 3670 3670 3670 3670 3670 3670 3670 3670 3670 3670 3670 3670 3670 3670 3670 3670 3670 3670 3670 3670 3670 3670 3670 3670 3670 3670 3670 3670 3670 3670 3670 3670 3670 3670 3670 3670 3670 3670 3670 3670 3670 3670 3670 3670 3670 3670 3670 3670 3670 3670 3670 3670 3670 3670 3670 3670 3670 3670 3670 3670 3670 3670 3670 3670 3670 3670 3670 3670 3670 3670 3670 3670 3670 3670 3670 3670 3670 3670 3670 3670 3670 3670 3670 3670 3670 3670 3670 3670 3670 3670 3670 3670 3670 3670 3670 3670 3670 3670 3670 3670 3670 3670 3670 3670 3670 3670 3670 3670 3670 3670 3670 3670 3670 3670 3670 3670 3670 3670 3670 3670 3670 3670 3670 3670 3670 3670 3670 3670 3670 3670 3670 3670 3670 3670 3670 3670 3670 3670 3670 3670 3670 3670 3670 3670 3670 3670 3670 3670 3670 3670 3670 3670 3670 3670 3670 3670 3670 3670 3670 3670 3670 3670 3670 3670 3670 3670 3670 3670 3670 3670 3670 3670 3670 3670 3670 3670 3670 3670 3670 3670 3670 3670 3670 3670 3670 3670 3670 3670 3670 3670 3670 3670 3670 3670 3670 3670 3670 3670 3670 3670 3670 3670 3670 3670 3670 3670 3670 3670 3670 3670 3670 3670 3670 3670 3670 3670 3670 3670 3670 3670 3670 3670 3670 3670 3670 3670 3670 3670 3670 3670 3670 3670 3670 3670 3670 3670 3670 3670 3670 3670 3670 3670 3670 3670 3670 3670 3670 3670 3670 3670 3670 3670 3670 3670 3670 3670 3670 3670 3670 3670 3670 3670 3670 3670 3670 3670 3670 3670 3670 3670 3670 3670 3670 3670 3670 3670 3670 3670 3670 3670 3670 3670 3670 3670 3670 3670 3670 3670 3670 3670 3670 3670 3670 3670 3670 3670 3670 3670 3670 3670 3670 3670 3670 3670 3670 3670 3670 3670 3670 3670 3670 3670 3670 3670 3670 3670 3670 3670 3670 3670 3670 3670 3670 3670 3670 3670 3670 3670 3670 3670 3670 3670 3670 3670 3670 3670 3670 3670 3670 3670 3670 3670 3670 3670 3670 3670 3670 3670 3670 3670 3670 3670 3670 3670 3670 3670 3670 3670 3670 3670 3670 3670 3670 3670 3670 3670 3670 3670 3670 3670 3670 3670 3670 3670 3670 3670 3670 3670 3670 3670 3670 3670 3670 3670 3670 3670 3670 3670 3670 3670 3670 3670 3670 3658.68 3654.04 3654.49 3652.59 3647.33 3643.5 3641.37 3638.86 3635.46 3632.43 3630.24 3628.74 3627.26 3625.48 3623.42 3621.54 3620.15 3619.36 3619.05 3619 3619.07 3619.2 3619.38 3619.63 3619.95 3620.36 3620.88 3621.56 3622.46 3623.57 3624.93 3626.6 3628.71 3631.38 3634.55 3638.01 3641.9 3646.43 3651.18 3657.23 3670 3670 3670 3670 3670 3670 3670 3670 3670 3670 3670 3670 3670 3670 3670 3670 3670 3670 3670 3670 3670 3670 3670 3670 3670 3670 3670 3670 3670 3670 3670 3670 3670 3670 3670 3670 3670 3670 3670 3670 3670 3670 3670 3670 3670 3670 3670 3670 3670 3670 3670 3670 3670 3670 3670 3670 3670 3670 3670 3670 3670 3670 3670 3670 3670 3670 3670 3670 3670 3670 3670 3670 3670 3670 3670 3670 3670 3670 3670 3670 3670 3670 3670 3670 3670 3670 3670 3670 3670 3670 3670 3670 3670 3670 3670 3670 3670 3670 3670 3670 3670 3670 3670 3670 3670 3670 3670 3670 3670 3670 3670 3670 3670 3670 3670 3670 3670 3670 3670 3670 3670 3670 3670 3670 3670 3670 3670 3670 3670 3670 3670 3670 3670 3670 3670 3670 3670 3670 3670 3670 3670 3670 3670 3670 3670 3670 3670 3670 3670 3670 3670 3670 3670 3670 3670 3670 3670 3670 3670 3670 3670 3670 3670 3670 3670 3670 3670 3670 3670 3670 3670 3670 3670 3670 3670 3670 3670 3670 3670 3670 3670 3670 3670 3670 3670 3670 3670 3670 3670 3670 3670 3670 3670 3670 3670 3670 3670 3670 3670 3670 3670 3670 3670 3670 3670 3670 3670 3670 3670 3670 3670 3670 3670 3670 3670 3670 3670 3670 3670 3670 3670 3670 3670 3670 3670 3670 3670 3670 3670 3670 3670 3670 3670 3670 3670 3670 3670 3670 3670 3670 3670 3670 3670 3670 3670 3670 3670 3670 3670 3670 3670 3670 3670 3670 3670 3670 3670 3670 3670 3670 3670 3670 3670 3670 3670 3670 3670 3670 3670 3670 3670 3670 3670 3670 3670 3670 3670 3670 3670 3670 3670 3670 3670 3670 3670 3670 3670 3670 3670 3670 3670 3670 3670 3670 3670 3670 3670 3670 3670 3670 3670 3670 3670 3670 3670 3670 3670 3670 3670 3670 3670 3670 3670 3670 3670 3670 3670 3670 3670 3670 3670 3670 3670 3670 3670 3670 3670 3670 3670 3670 3670 3670 3670 3670 3670 3670 3670 3670 3670 3670 3670 3670 3670 3670 3670 3670 3670 3670 3670 3670 3670 3670 3670 3670 3670 3670 3670 3670 3670 3670 3670 3670 3670 3670 3670 3670 3670 3670 3670 3670 3670 3670 3670 3670 3670 3670 3670 3670 3670 3670 3670 3670 3670 3670 3670 3670 3670 3670 3670 3670 3670 3670 3670 3670 3670 3670 3670 3670 3670 3670 3670 3670 3670 3670 3670 3670 3670 3670 3670 3670 3670 3670 3670 3670 3670 3670 3670 3670 3670 3670 3670 3670 3670 3670 3670 3670 3670 3670 3670 3670 3670 3670 3670 3670 3670 3670 3670 3670 3670 3670 3670 3670 3670 3670 3670 3670 3670 3670 3670 3670 3670 3670 3670 3670 3670 3670 3670 3670 3670 3670 3670 3670 3670 3670 3670 3670 3670 3670 3670 3670 3670 3670 3670 3670 3670 3670 3670 3670 3670 3670 3670 3670 3670 3670 3670 3670 3670 3670 3670 3670 3670 3670 3670 3670 3670 3670 3670 3670 3670 3670 3670 3670 3670 3670 3670 3670 3670 3670 3670 3670 3670 3670 3670 3670 3670 3670 3670 3670 3670 3670 3670 3670 3670 3670 3670 3670 3670 3670 3670 3670 3670 3670 3670 3670 3670 3670 3670 3670 3670 3670 3670 3670 3670 3670 3670 3670 3670 3670 3670 3670 3670 3670 3670 3670 3670 3670 3670 3670 3670 3670 3670 3670 3670 3670 3670 3670 3670 3670 3670 3670 3670 3670 3670 3670 3670 3670 3670 3670 3670 3670 3670 3670 3670 3670 3670 3670 3670 3670 3670 3670 3670 3670 3670 3670 3670 3670 3670 3670 3670 3670 3670 3670 3670 3670 3670 3670 3670 3670 3670 3670 3670 3670 3670 3670 3670 3670 3670 3670 3670 3670 3670 3670 3670 3670 3670 3670 3670 3670 3670 3670 3670 3670 3670 3670 3670 3670 3670 3670 3670 3670 3670 3670 3670 3670 3670 3670 3670 3670 3670 3670 3670 3670 3670 3670 3670 3670 3670 3670 3670 3670 3670 3670 3670 3670 3670 3670 3670 3670 3670 3670 3670 3670 3670 3670 3670 3670 3670 3670 3670 3670 3670 3670 3670 3670 3670 3670 3670 3670 3670 3670 3670 3670 3670 3670 3670 3670 3670 3670 3670 3670 3670 3670 3670 3670 3670 3670 3670 3670 3670 3670 3670 3670 3670 3670 3670 3670 3670 3670 3670 3670 3670 3670 3670 3670 3670 3670 3670 3670 3670 3670 3670 3670 3670 3670 3670 3670 3670 3670 3670 3670 3670 3670 3670 3670 3670 3670 3670 3670 3670 3670 3670 3670 3670 3670 3670 3670 3670 3670 3670 3670 3670 3670 3670 3670 3670 3670 3670 3670 3670 3670 3670 3670 3670 3670 3670 3670 3670 3670 3670 3670 3670 3670 3670 3670 3670 3670 3670 3670 3670 3670 3670 3670 3670 3670 3670 3670 3670 3670 3670 3670 3670 3670 3670 3670 3670 3670 3670 3670 3670 3670 3670 3670 3670 3670 3670 3670 3670 3670 3670 3670 3670 3670 3670 3670 3670 3670 3670 3670 3670 3670 3670 3670 3670 3670 3670 3670 3670 3670 3670 3670 3670 3670 3670 3670 3670 3670 3670 3670 3670 3670 3670 3670 3670 3670 3670 3670 3670 3670 3670 3670 3670 3670 3670 3670 3670 3670 3670 3670 3670 3670 3670 3670 3670 3670 3670 3670 3670 3670 3670 3670 3670 3670 3670 3670 3670 3670 3670 3670 3670 3670 3670 3670 3670 3670 3670 3670 3670 3670 3670 3670 3670 3670 3670 3670 3670 3670 3670 3670 3670 3670 3670 3670 3670 3670 3670 3670 3670 3659.52 3656.83 3653.74 3647.99 3643.8 3641.34 3638.53 3634.84 3631.45 3628.65 3625.9 3623.01 3620.33 3618.08 3616.21 3614.47 3612.72 3610.97 3609.39 3608.14 3607.29 3606.79 3606.55 3606.48 3606.53 3606.69 3606.96 3607.34 3607.84 3608.49 3609.32 3610.36 3611.64 3613.19 3615.07 3617.34 3620.05 3623.2 3626.75 3630.76 3635.3 3640.39 3646.43 3653.77 3658.11 3670 3670 3670 3670 3670 3670 3670 3670 3670 3670 3670 3670 3670 3670 3670 3670 3670 3670 3670 3670 3670 3670 3670 3670 3670 3670 3670 3670 3670 3670 3670 3670 3670 3670 3670 3670 3670 3670 3670 3670 3670 3670 3670 3670 3670 3670 3670 3670 3670 3670 3670 3670 3670 3670 3670 3670 3670 3670 3670 3670 3670 3670 3670 3670 3670 3670 3670 3670 3670 3670 3670 3670 3670 3670 3670 3670 3670 3670 3670 3670 3670 3670 3670 3670 3670 3670 3670 3670 3670 3670 3670 3670 3670 3670 3670 3670 3670 3670 3670 3670 3670 3670 3670 3670 3670 3670 3670 3670 3670 3670 3670 3670 3670 3670 3670 3670 3670 3670 3670 3670 3670 3670 3670 3670 3670 3670 3670 3670 3670 3670 3670 3670 3670 3670 3670 3670 3670 3670 3670 3670 3670 3670 3670 3670 3670 3670 3670 3670 3670 3670 3670 3670 3670 3670 3670 3670 3670 3670 3670 3670 3670 3670 3670 3670 3670 3670 3670 3670 3670 3670 3670 3670 3670 3670 3670 3670 3670 3670 3670 3670 3670 3670 3670 3670 3670 3670 3670 3670 3670 3670 3670 3670 3670 3670 3670 3670 3670 3670 3670 3670 3670 3670 3670 3670 3670 3670 3670 3670 3670 3670 3670 3670 3670 3670 3670 3670 3670 3670 3670 3670 3670 3670 3670 3670 3670 3670 3670 3670 3670 3670 3670 3670 3670 3670 3670 3670 3670 3670 3670 3670 3670 3670 3670 3670 3670 3670 3670 3670 3670 3670 3670 3670 3670 3670 3670 3670 3670 3670 3670 3670 3670 3670 3670 3670 3670 3670 3670 3670 3670 3670 3670 3670 3670 3670 3670 3670 3670 3670 3670 3670 3